[
  {
    "material_id": "mp-66",
    "formula": "Si",
    "material_type": "半導体",
    "band_gap": 1.14,
    "formation_energy": -5.424,
    "density": 2.33,
    "structure_type": "diamond",
    "space_group": "Fd-3m"
  },
  {
    "material_id": "mp-149",
    "formula": "Al",
    "material_type": "金属",
    "band_gap": 0.0,
    "formation_energy": -3.747,
    "density": 2.7,
    "structure_type": "fcc",
    "space_group": "Fm-3m"
  },
  {
    "material_id": "mp-1143",
    "formula": "Fe",
    "material_type": "金属",
    "band_gap": 0.0,
    "formation_energy": -8.127,
    "density": 7.87,
    "structure_type": "bcc",
    "space_group": "Im-3m"
  },
  {
    "material_id": "mp-804",
    "formula": "Al2O3",
    "material_type": "セラミックス",
    "band_gap": 6.28,
    "formation_energy": -16.574,
    "density": 3.99,
    "structure_type": "corundum",
    "space_group": "R-3c"
  },
  {
    "material_id": "mp-1265",
    "formula": "SiO2",
    "material_type": "セラミックス",
    "band_gap": 5.61,
    "formation_energy": -10.847,
    "density": 2.65,
    "structure_type": "quartz",
    "space_group": "P3221"
  }
]